14
Lattice="220.0 0.0 0.0 0.0 220.0 0.0 0.0 0.0 220.0" Properties=species:S:1:pos:R:3:ref_force:R:3:ref_charge:R:1:esp:R:1:esp_gradient:R:3 calculations/GEOM_00000=T ref_energy=-35758.026273764895 total_charge=-1.0 ref_dipole="-1.0850969028059099 0.2202168973767399 0.831354372045061" ref_quadrupole="-54.3679 -62.86493 -56.09851 -6.52744 -1.68971 -6.13309" pbc="F F F"
C      109.05000000     109.79000000     111.27000000      -0.37376714      -0.30168037       0.30640380      -0.10203900       0.25910000      -0.02236800      -0.18446040       0.11098710
S      110.17000000     110.01000000     109.82000000      -0.05300013      -0.29386637      -0.16156295      -0.08949900       0.23085000       0.11983210      -0.07043840      -0.00217880
H      109.63000000     109.52000000     112.15000000       0.02970592      -0.00817503       0.08326526      -0.00376000       0.44215000       0.12407100      -0.13995880       0.26251990
H      108.36000000     108.99000000     111.02000000      -0.16989559      -0.08235350       0.18840250      -0.01799500       0.41049000      -0.13815890      -0.16715260       0.37037990
H      108.52000000     110.71000000     111.47000000      -0.10348654       0.25439833       0.09235957       0.00814500       0.04965000       0.00374030      -0.24594090      -0.03335280
C      108.08000000     109.76000000     107.93000000      -0.57345232      -0.27844011      -0.11655973      -0.09803900      -0.16178000       0.29652830       0.03533590      -0.03070490
S      109.29000000     108.68000000     108.78000000      -4.35521308      -6.13590830      -5.28989455      -0.31187100       0.15690000       0.23991500       0.00952700      -0.01417210
H      107.33000000     110.15000000     108.63000000       0.12980380      -0.15711910      -0.09023100       0.01211000      -0.30531000       0.20513670       0.05666650       0.08406500
H      107.57000000     109.19000000     107.16000000      -0.18183354      -0.07728405      -0.08296990       0.00763800      -0.35020000       0.45065360       0.19563330      -0.17087410
H      108.58000000     110.61000000     107.47000000       0.28535252       0.10792683       0.05083227      -0.00073000      -0.05956000       0.18436530      -0.13494000      -0.06259620
C      112.39000000     110.30000000     111.55000000       0.34408071       0.83177266       0.80796305      -0.09755600       0.20151000      -0.03057390      -0.00275880      -0.09250630
S      111.14000000     111.36000000     110.73000000       5.11258271       6.49404045       4.54743403      -0.30645100       0.29462000       0.01496750       0.09444720      -0.08362410
H      113.14000000     110.94000000     112.03000000      -0.08032186      -0.13907540      -0.02453152      -0.00058600       0.13226000       0.11616190      -0.10071240      -0.09395120
H      111.94000000     109.67000000     112.32000000       0.01092987      -0.01505088      -0.05566806       0.00270300       0.26058000      -0.35120440       0.10558560       0.20523970
15
Lattice="220.0 0.0 0.0 0.0 220.0 0.0 0.0 0.0 220.0" Properties=species:S:1:pos:R:3:ref_force:R:3:ref_charge:R:1:esp:R:1:esp_gradient:R:3 calculations/GEOM_00001=T ref_energy=-35758.272662274416 total_charge=-1.0 ref_dipole="-1.1825982899639402 0.07841287262318128 0.7761222254615366" ref_quadrupole="-54.33117 -62.81164 -55.98582 -6.57468 -1.72138 -6.16336" pbc="F F F"
C      109.04000000     109.78000000     111.26000000      -0.32272933      -0.25104638       0.31707419      -0.10142300       0.26833000      -0.02804190      -0.18024940       0.10856880
S      110.16000000     110.00000000     109.81000000       0.22645191       0.04478267       0.11116468      -0.08860000       0.23997000       0.11678010      -0.06423950      -0.00492210
H      109.62000000     109.51000000     112.14000000       0.02791607      -0.00569489       0.08302266      -0.00322100       0.44404000       0.11887260      -0.13721550       0.25876120
H      108.35000000     108.98000000     111.01000000      -0.15969489      -0.07927476       0.17695291      -0.01736300       0.42089000      -0.14369010      -0.16290960       0.36869230
H      108.51000000     110.70000000     111.46000000      -0.10448659       0.25145570       0.09630776       0.00834900       0.06488000      -0.00217030      -0.24289610      -0.03581190
C      108.07000000     109.75000000     107.92000000      -0.57032097      -0.27034920      -0.12099339      -0.09779100      -0.15054000       0.29652810       0.03379950      -0.02847100
S      109.28000000     108.67000000     108.77000000      -4.27652063      -6.04256636      -5.23161101      -0.30706500       0.16677000       0.23699040       0.01176930      -0.01761070
H      107.32000000     110.14000000     108.62000000       0.13072564      -0.15718127      -0.08885978       0.01233400      -0.29327000       0.20593960       0.05576790       0.08607430
H      107.56000000     109.18000000     107.15000000      -0.18386677      -0.07922395      -0.08597799       0.00776700      -0.33966000       0.45073170       0.19212020      -0.16721960
H      108.57000000     110.60000000     107.46000000       0.28058955       0.10190125       0.05182020       0.00012300      -0.05061000       0.18451290      -0.13607160      -0.05876870
C      112.39000000     110.31000000     111.55000000       0.27599571       0.56990450       0.59353501      -0.09737000       0.20281000      -0.02894390       0.00056370      -0.09503320
S      111.14000000     111.37000000     110.73000000       4.74623963       6.01795930       4.24610559      -0.31538700       0.30862000       0.00806980       0.10343440      -0.09125440
H      113.14000000     110.94000000     112.03000000       0.03773250      -0.01295348       0.03148435      -0.00056100       0.13752000       0.12110970      -0.09760770      -0.09470330
H      111.94000000     109.68000000     112.32000000      -0.00878875      -0.01388705      -0.04732107       0.00225900       0.25702000      -0.34780790       0.10047020       0.19921880
H      112.88000000     109.66000000     110.83000000      -0.06515492      -0.11214468      -0.28165810      -0.00204900       0.26146000       0.05295360       0.16407930      -0.21039930
